 &FCI NORB=   4,NELEC= 4,MS2=0,
  ORBSYM=1,1,1,1,
  ISYM=1,
 &END
 0.4972848339745081    1    1    1    1
 0.4359320880669053    1    1    2    2
 -0.08156519316759395    1    1    3    1
 0.4459940897042065    1    1    3    3
 0.08424758944235772    1    1    4    2
 0.522952235141136    1    1    4    4
 0.1573820542416299    2    1    2    1
 0.09800095413149044    2    1    3    2
 0.04308397755872728    2    1    4    1
 -0.1506334717723187    2    1    4    3
 0.4359320880669053    2    2    1    1
 0.4536261664575225    2    2    2    2
 0.009805153205493959    2    2    3    1
 0.4477642031214349    2    2    3    3
 0.004056495701406447    2    2    4    2
 0.4639452964684492    2    2    4    4
 -0.08156519316759386    3    1    1    1
 0.009805153205494055    3    1    2    2
 0.1078321210840756    3    1    3    1
 -0.006862628154546538    3    1    3    3
 -0.09851298291873586    3    1    4    2
 -0.08590730305133756    3    1    4    4
 0.09800095413149044    3    2    2    1
 0.137282710722142    3    2    3    2
 -0.05296055966886005    3    2    4    1
 -0.09936645501760857    3    2    4    3
 0.4459940897042065    3    3    1    1
 0.447764203121435    3    3    2    2
 -0.006862628154546496    3    3    3    1
 0.4674057541788815    3    3    3    3
 0.00281451104012985    3    3    4    2
 0.4802184232268468    3    3    4    4
 0.04308397755872725    4    1    2    1
 -0.05296055966886002    4    1    3    2
 0.09706949699932359    4    1    4    1
 -0.04096940945032611    4    1    4    3
 0.08424758944235769    4    2    1    1
 0.004056495701406369    4    2    2    2
 -0.09851298291873584    4    2    3    1
 0.002814511040129787    4    2    3    3
 0.1046453270311718    4    2    4    2
 0.09353801655819284    4    2    4    4
 -0.1506334717723187    4    3    2    1
 -0.09936645501760857    4    3    3    2
 -0.04096940945032614    4    3    4    1
 0.1624644779353703    4    3    4    3
 0.5229522351411361    4    4    1    1
 0.4639452964684491    4    4    2    2
 -0.08590730305133756    4    4    3    1
 0.4802184232268465    4    4    3    3
 0.09353801655819291    4    4    4    2
 0.5810459172323108    4    4    4    4
 -1.835108696316805    1    1  0  0
 -1.55065251795025    2    2  0  0
 0.159956096842518    3    1  0  0
 -1.245801753748652    3    3  0  0
 -0.1294674738918786    4    2  0  0
 -0.9063250024040314    4    4  0  0
 2.29310124732  0  0  0  0
