 &FCI NORB=   4,NELEC= 4,MS2=0,
  ORBSYM=1,1,1,1,
  ISYM=1,
 &END
 0.4972848339745064    1    1    1    1
 0.4359320880669044    1    1    2    2
 -0.08156519316759368    1    1    3    1
 0.4459940897042058    1    1    3    3
 -0.08424758944235755    1    1    4    2
 0.5229522351411354    1    1    4    4
 0.1573820542416296    2    1    2    1
 0.09800095413149025    2    1    3    2
 -0.04308397755872714    2    1    4    1
 0.1506334717723186    2    1    4    3
 0.4359320880669044    2    2    1    1
 0.453626166457522    2    2    2    2
 0.009805153205493952    2    2    3    1
 0.4477642031214346    2    2    3    3
 -0.004056495701406412    2    2    4    2
 0.4639452964684492    2    2    4    4
 -0.08156519316759366    3    1    1    1
 0.009805153205493956    3    1    2    2
 0.1078321210840754    3    1    3    1
 -0.006862628154546552    3    1    3    3
 0.09851298291873584    3    1    4    2
 -0.08590730305133748    3    1    4    4
 0.09800095413149024    3    2    2    1
 0.1372827107221418    3    2    3    2
 0.05296055966886004    3    2    4    1
 0.09936645501760857    3    2    4    3
 0.4459940897042057    3    3    1    1
 0.4477642031214346    3    3    2    2
 -0.006862628154546628    3    3    3    1
 0.4674057541788813    3    3    3    3
 -0.00281451104012985    3    3    4    2
 0.480218423226847    3    3    4    4
 -0.04308397755872713    4    1    2    1
 0.05296055966886004    4    1    3    2
 0.09706949699932345    4    1    4    1
 -0.040969409450326    4    1    4    3
 -0.08424758944235752    4    2    1    1
 -0.004056495701406357    4    2    2    2
 0.09851298291873579    4    2    3    1
 -0.002814511040129829    4    2    3    3
 0.1046453270311719    4    2    4    2
 -0.09353801655819285    4    2    4    4
 0.1506334717723186    4    3    2    1
 0.09936645501760857    4    3    3    2
 -0.04096940945032599    4    3    4    1
 0.1624644779353704    4    3    4    3
 0.5229522351411354    4    4    1    1
 0.4639452964684492    4    4    2    2
 -0.08590730305133749    4    4    3    1
 0.4802184232268468    4    4    3    3
 -0.09353801655819267    4    4    4    2
 0.5810459172323108    4    4    4    4
 -1.835108696316802    1    1  0  0
 -1.550652517950249    2    2  0  0
 0.159956096842518    3    1  0  0
 -1.245801753748652    3    3  0  0
 0.1294674738918783    4    2  0  0
 -0.9063250024040321    4    4  0  0
 2.29310124732  0  0  0  0
